! Sonnet Data File
! From: emgraph Version : 14.54
! From Emgraph Data: design1
! Data File Written: 03/09/2015 15:00:24
!< HDATE 03/09/2015 14:53:01
!< MDATE 03/09/2015 14:57:05
# GHZ S DB R 50.00000
0.10000000 -1.37e-8 -0.064 -89.1802 89.935 -89.1802 89.935 -1.38e-8 -0.064
!< P1 F=0.1 Eeff=(5.92679282 -5.4743e-6) Z0=(76.0846776 3.51698e-5) R=0.02682379 C=0.05238463 
!< P2 F=0.1 Eeff=(5.92679282 -5.4743e-6) Z0=(76.0846776 3.51698e-5) R=0.02682379 C=0.05238463 
0.12500000 -1.12e-5 -0.080 -87.9269 88.208 -87.9269 88.208 -1.15e-5 -0.080
0.15000000 -2.18e-5 -0.096 -86.8030 87.034 -86.8030 87.034 -2.20e-5 -0.096
0.17500000 -3.16e-5 -0.112 -85.7832 86.244 -85.7832 86.244 -3.16e-5 -0.112
0.20000000 -4.06e-5 -0.128 -84.8482 85.730 -84.8482 85.730 -4.01e-5 -0.128
0.22500000 -4.87e-5 -0.144 -83.9836 85.416 -83.9836 85.416 -4.77e-5 -0.144
0.25000000 -5.59e-5 -0.160 -83.1779 85.252 -83.1779 85.252 -5.43e-5 -0.160
0.27500000 -6.20e-5 -0.176 -82.4221 85.197 -82.4221 85.197 -6.00e-5 -0.176
0.30000000 -6.70e-5 -0.192 -81.7094 85.223 -81.7094 85.223 -6.48e-5 -0.192
0.32500000 -7.10e-5 -0.208 -81.0342 85.309 -81.0342 85.309 -6.87e-5 -0.208
0.35000000 -7.40e-5 -0.224 -80.3919 85.436 -80.3919 85.436 -7.18e-5 -0.224
0.37500000 -7.60e-5 -0.240 -79.7790 85.591 -79.7790 85.591 -7.41e-5 -0.240
0.40000000 -7.70e-5 -0.256 -79.1926 85.763 -79.1926 85.763 -7.57e-5 -0.256
0.42500000 -7.72e-5 -0.272 -78.6302 85.944 -78.6302 85.944 -7.65e-5 -0.272
0.45000000 -7.66e-5 -0.288 -78.0899 86.128 -78.0899 86.128 -7.66e-5 -0.288
0.47500000 -7.53e-5 -0.304 -77.5702 86.309 -77.5702 86.309 -7.61e-5 -0.304
0.50000000 -7.35e-5 -0.320 -77.0696 86.483 -77.0696 86.483 -7.50e-5 -0.320
0.52500000 -7.12e-5 -0.336 -76.5871 86.649 -76.5871 86.649 -7.32e-5 -0.336
0.55000000 -6.85e-5 -0.352 -76.1218 86.804 -76.1218 86.804 -7.09e-5 -0.352
0.57500000 -6.55e-5 -0.368 -75.6729 86.949 -75.6729 86.949 -6.80e-5 -0.368
0.60000000 -6.22e-5 -0.384 -75.2396 87.084 -75.2396 87.084 -6.45e-5 -0.384
0.62500000 -5.86e-5 -0.401 -74.8210 87.212 -74.8210 87.212 -6.05e-5 -0.400
0.65000000 -5.48e-5 -0.417 -74.4164 87.334 -74.4164 87.334 -5.61e-5 -0.417
0.67500000 -5.06e-5 -0.433 -74.0248 87.449 -74.0248 87.449 -5.14e-5 -0.433
0.70000000 -4.61e-5 -0.449 -73.6456 87.560 -73.6456 87.560 -4.64e-5 -0.449
0.72500000 -4.15e-5 -0.465 -73.2782 87.666 -73.2782 87.666 -4.12e-5 -0.465
0.75000000 -3.67e-5 -0.481 -72.9219 87.770 -72.9219 87.770 -3.55e-5 -0.481
0.77500000 -3.18e-5 -0.497 -72.5761 87.872 -72.5761 87.872 -2.94e-5 -0.497
0.80000000 -2.68e-5 -0.514 -72.2401 87.973 -72.2401 87.973 -2.28e-5 -0.513
0.82500000 -2.17e-5 -0.530 -71.9134 88.075 -71.9134 88.075 -1.55e-5 -0.530
0.85000000 -1.62e-5 -0.546 -71.5951 88.179 -71.5951 88.179 -7.59e-6 -0.546
0.87500000 -1.04e-5 -0.562 -71.2843 88.284 -71.2843 88.284 1.143e-6 -0.562
0.90000000 -4.11e-6 -0.578 -70.9797 88.391 -70.9797 88.391 1.073e-5 -0.578
0.92500000 2.702e-6 -0.594 -70.6799 88.504 -70.6799 88.504 2.107e-5 -0.594
0.95000000 9.606e-6 -0.611 -70.3840 88.634 -70.3840 88.634 3.174e-5 -0.611
0.97500000 1.608e-5 -0.627 -70.0932 88.790 -70.0932 88.790 4.229e-5 -0.627
1.00000000 2.246e-5 -0.643 -69.8090 88.964 -69.8090 88.964 5.301e-5 -0.643
1.02500000 2.956e-5 -0.659 -69.5302 89.140 -69.5302 89.140 6.449e-5 -0.659
1.05000000 3.785e-5 -0.676 -69.2551 89.310 -69.2551 89.310 7.694e-5 -0.676
1.07500000 4.750e-5 -0.692 -68.9827 89.472 -68.9827 89.472 9.041e-5 -0.692
1.10000000 5.843e-5 -0.708 -68.7127 89.625 -68.7127 89.625 1.047e-4 -0.708
1.12500000 7.040e-5 -0.724 -68.4454 89.770 -68.4454 89.770 1.196e-4 -0.725
1.15000000 8.313e-5 -0.741 -68.1805 89.909 -68.1805 89.909 1.346e-4 -0.741
1.17500000 9.634e-5 -0.757 -67.9179 90.043 -67.9179 90.043 1.491e-4 -0.757
1.20000000 1.098e-4 -0.773 -67.6571 90.175 -67.6571 90.175 1.627e-4 -0.774
1.22500000 1.234e-4 -0.790 -67.3978 90.302 -67.3978 90.302 1.751e-4 -0.790
1.25000000 1.371e-4 -0.806 -67.1397 90.424 -67.1397 90.424 1.860e-4 -0.807
1.27500000 1.505e-4 -0.822 -66.8829 90.539 -66.8829 90.539 1.952e-4 -0.823
1.30000000 1.637e-4 -0.839 -66.6274 90.644 -66.6274 90.644 2.026e-4 -0.839
1.32500000 1.765e-4 -0.855 -66.3731 90.737 -66.3731 90.737 2.081e-4 -0.856
1.35000000 1.888e-4 -0.872 -66.1201 90.817 -66.1201 90.817 2.117e-4 -0.872
1.37500000 2.003e-4 -0.888 -65.8687 90.881 -65.8687 90.881 2.135e-4 -0.889
1.40000000 2.111e-4 -0.905 -65.6188 90.930 -65.6188 90.930 2.136e-4 -0.906
1.42500000 2.208e-4 -0.921 -65.3705 90.963 -65.3705 90.963 2.122e-4 -0.922
1.45000000 2.295e-4 -0.938 -65.1240 90.979 -65.1240 90.979 2.094e-4 -0.939
1.47500000 2.370e-4 -0.954 -64.8791 90.980 -64.8791 90.980 2.053e-4 -0.955
1.50000000 2.432e-4 -0.971 -64.6361 90.966 -64.6361 90.966 2.002e-4 -0.972
1.52500000 2.481e-4 -0.988 -64.3948 90.939 -64.3948 90.939 1.942e-4 -0.988
1.55000000 2.515e-4 -1.004 -64.1553 90.898 -64.1553 90.898 1.876e-4 -1.005
1.57500000 2.534e-4 -1.021 -63.9176 90.846 -63.9176 90.846 1.804e-4 -1.022
1.60000000 2.538e-4 -1.038 -63.6815 90.782 -63.6815 90.782 1.728e-4 -1.038
1.62500000 2.527e-4 -1.054 -63.4470 90.709 -63.4470 90.709 1.649e-4 -1.055
1.65000000 2.501e-4 -1.071 -63.2141 90.627 -63.2141 90.627 1.568e-4 -1.072
1.67500000 2.461e-4 -1.088 -62.9827 90.538 -62.9827 90.538 1.486e-4 -1.088
1.70000000 2.406e-4 -1.105 -62.7526 90.443 -62.7526 90.443 1.405e-4 -1.105
1.72500000 2.338e-4 -1.122 -62.5237 90.342 -62.5237 90.342 1.324e-4 -1.122
1.75000000 2.258e-4 -1.138 -62.2958 90.238 -62.2958 90.238 1.244e-4 -1.139
1.77500000 2.167e-4 -1.155 -62.0688 90.130 -62.0688 90.130 1.165e-4 -1.156
1.80000000 2.068e-4 -1.172 -61.8424 90.022 -61.8424 90.022 1.088e-4 -1.172
1.82500000 1.961e-4 -1.189 -61.6165 89.913 -61.6165 89.913 1.013e-4 -1.189
1.85000000 1.849e-4 -1.206 -61.3907 89.806 -61.3907 89.806 9.394e-5 -1.206
1.87500000 1.733e-4 -1.223 -61.1647 89.700 -61.1647 89.700 8.685e-5 -1.223
1.90000000 1.616e-4 -1.240 -60.9382 89.597 -60.9382 89.597 7.999e-5 -1.240
1.92500000 1.498e-4 -1.257 -60.7109 89.497 -60.7109 89.497 7.336e-5 -1.257
1.95000000 1.381e-4 -1.274 -60.4823 89.402 -60.4823 89.402 6.696e-5 -1.274
1.97500000 1.267e-4 -1.291 -60.2521 89.311 -60.2521 89.311 6.080e-5 -1.291
2.00000000 1.155e-4 -1.309 -60.0200 89.225 -60.0200 89.225 5.486e-5 -1.309
2.02500000 1.048e-4 -1.326 -59.7854 89.144 -59.7854 89.144 4.915e-5 -1.326
2.05000000 9.443e-5 -1.343 -59.5480 89.067 -59.5480 89.067 4.366e-5 -1.343
2.07500000 8.456e-5 -1.361 -59.3074 88.996 -59.3074 88.996 3.839e-5 -1.360
2.10000000 7.518e-5 -1.378 -59.0631 88.929 -59.0631 88.929 3.332e-5 -1.378
2.12500000 6.628e-5 -1.396 -58.8147 88.867 -58.8147 88.867 2.845e-5 -1.396
2.15000000 5.786e-5 -1.413 -58.5618 88.808 -58.5618 88.808 2.378e-5 -1.413
2.17500000 4.990e-5 -1.431 -58.3038 88.754 -58.3038 88.754 1.928e-5 -1.431
2.20000000 4.240e-5 -1.449 -58.0404 88.703 -58.0404 88.703 1.496e-5 -1.449
2.22500000 3.532e-5 -1.467 -57.7709 88.656 -57.7709 88.656 1.080e-5 -1.467
2.25000000 2.863e-5 -1.485 -57.4949 88.612 -57.4949 88.612 6.787e-6 -1.485
2.27500000 2.232e-5 -1.503 -57.2117 88.570 -57.2117 88.570 2.918e-6 -1.503
2.30000000 1.634e-5 -1.522 -56.9207 88.531 -56.9207 88.531 -8.23e-7 -1.522
2.32500000 1.068e-5 -1.540 -56.6212 88.494 -56.6212 88.494 -4.45e-6 -1.540
2.35000000 5.295e-6 -1.559 -56.3125 88.459 -56.3125 88.459 -7.97e-6 -1.559
2.37500000 1.599e-7 -1.578 -55.9937 88.427 -55.9937 88.427 -1.14e-5 -1.578
2.40000000 -4.76e-6 -1.598 -55.6640 88.395 -55.6640 88.395 -1.48e-5 -1.597
2.42500000 -9.49e-6 -1.617 -55.3222 88.366 -55.3222 88.366 -1.81e-5 -1.617
2.45000000 -1.41e-5 -1.637 -54.9673 88.337 -54.9673 88.337 -2.14e-5 -1.636
2.47500000 -1.85e-5 -1.657 -54.5980 88.310 -54.5980 88.310 -2.47e-5 -1.657
2.50000000 -2.29e-5 -1.678 -54.2128 88.283 -54.2128 88.283 -2.80e-5 -1.677
2.52500000 -2.73e-5 -1.699 -53.8101 88.258 -53.8101 88.258 -3.14e-5 -1.698
2.55000000 -3.16e-5 -1.720 -53.3880 88.232 -53.3880 88.232 -3.49e-5 -1.720
2.57500000 -3.61e-5 -1.743 -52.9442 88.208 -52.9442 88.208 -3.85e-5 -1.742
2.60000000 -4.07e-5 -1.765 -52.4763 88.183 -52.4763 88.183 -4.24e-5 -1.765
2.62500000 -4.55e-5 -1.789 -51.9812 88.159 -51.9812 88.159 -4.66e-5 -1.789
2.65000000 -5.08e-5 -1.814 -51.4554 88.134 -51.4554 88.134 -5.13e-5 -1.813
2.67500000 -5.66e-5 -1.840 -50.8946 88.109 -50.8946 88.109 -5.66e-5 -1.839
2.70000000 -6.31e-5 -1.868 -50.2936 88.083 -50.2936 88.083 -6.27e-5 -1.867
2.72500000 -7.07e-5 -1.897 -49.6461 88.056 -49.6461 88.056 -6.99e-5 -1.896
2.75000000 -7.99e-5 -1.929 -48.9441 88.027 -48.9441 88.027 -7.87e-5 -1.928
2.77500000 -9.12e-5 -1.963 -48.1776 87.995 -48.1776 87.995 -8.98e-5 -1.962
2.80000000 -1.06e-4 -2.002 -47.3334 87.960 -47.3334 87.960 -1.04e-4 -2.001
2.82500000 -1.25e-4 -2.046 -46.3940 87.920 -46.3940 87.920 -1.24e-4 -2.045
2.85000000 -1.53e-4 -2.098 -45.3355 87.873 -45.3355 87.873 -1.51e-4 -2.096
2.87500000 -1.93e-4 -2.160 -44.1234 87.816 -44.1234 87.816 -1.91e-4 -2.158
2.90000000 -2.57e-4 -2.239 -42.7062 87.741 -42.7062 87.741 -2.55e-4 -2.237
2.92500000 -3.67e-4 -2.346 -41.0013 87.640 -41.0013 87.640 -3.65e-4 -2.343
2.95000000 -5.84e-4 -2.505 -38.8637 87.486 -38.8637 87.486 -5.82e-4 -2.501
2.97500000 -1.11e-3 -2.777 -36.0013 87.220 -36.0013 87.220 -1.10e-3 -2.771
3.00000000 -3.00e-3 -3.382 -31.6641 86.614 -31.6641 86.614 -3.00e-3 -3.373
3.00050000 -3.07e-3 -3.402 -31.5506 86.594 -31.5506 86.594 -3.07e-3 -3.393
3.00100000 -3.16e-3 -3.423 -31.4356 86.573 -31.4356 86.573 -3.16e-3 -3.413
3.00150000 -3.24e-3 -3.444 -31.3190 86.552 -31.3190 86.552 -3.24e-3 -3.434
3.00200000 -3.33e-3 -3.466 -31.2008 86.531 -31.2008 86.531 -3.33e-3 -3.456
3.00250000 -3.42e-3 -3.488 -31.0810 86.509 -31.0810 86.509 -3.42e-3 -3.478
3.00300000 -3.52e-3 -3.511 -30.9595 86.486 -30.9595 86.486 -3.52e-3 -3.501
3.00350000 -3.62e-3 -3.535 -30.8363 86.462 -30.8363 86.462 -3.62e-3 -3.524
3.00400000 -3.72e-3 -3.559 -30.7112 86.438 -30.7112 86.438 -3.72e-3 -3.548
3.00450000 -3.83e-3 -3.584 -30.5844 86.413 -30.5844 86.413 -3.83e-3 -3.573
3.00500000 -3.95e-3 -3.610 -30.4556 86.388 -30.4556 86.388 -3.95e-3 -3.599
3.00550000 -4.07e-3 -3.636 -30.3249 86.361 -30.3249 86.361 -4.07e-3 -3.625
3.00600000 -4.19e-3 -3.663 -30.1921 86.334 -30.1921 86.334 -4.19e-3 -3.652
3.00650000 -4.33e-3 -3.692 -30.0573 86.306 -30.0573 86.306 -4.33e-3 -3.680
3.00700000 -4.46e-3 -3.721 -29.9204 86.277 -29.9204 86.277 -4.46e-3 -3.709
3.00750000 -4.61e-3 -3.751 -29.7812 86.247 -29.7812 86.247 -4.61e-3 -3.739
3.00800000 -4.76e-3 -3.782 -29.6397 86.217 -29.6397 86.217 -4.76e-3 -3.770
3.00850000 -4.92e-3 -3.814 -29.4959 86.185 -29.4959 86.185 -4.92e-3 -3.801
3.00900000 -5.09e-3 -3.847 -29.3497 86.152 -29.3497 86.152 -5.09e-3 -3.834
3.00950000 -5.26e-3 -3.881 -29.2009 86.118 -29.2009 86.118 -5.26e-3 -3.868
3.01000000 -5.45e-3 -3.916 -29.0496 86.083 -29.0496 86.083 -5.45e-3 -3.903
3.01050000 -5.65e-3 -3.953 -28.8955 86.046 -28.8955 86.046 -5.65e-3 -3.940
3.01100000 -5.85e-3 -3.991 -28.7386 86.008 -28.7386 86.008 -5.85e-3 -3.977
3.01150000 -6.07e-3 -4.030 -28.5788 85.969 -28.5788 85.969 -6.07e-3 -4.017
3.01200000 -6.30e-3 -4.071 -28.4160 85.929 -28.4160 85.929 -6.30e-3 -4.057
3.01250000 -6.55e-3 -4.113 -28.2501 85.886 -28.2501 85.886 -6.55e-3 -4.099
3.01300000 -6.81e-3 -4.157 -28.0809 85.842 -28.0809 85.842 -6.81e-3 -4.143
3.01350000 -7.08e-3 -4.203 -27.9084 85.797 -27.9084 85.797 -7.08e-3 -4.189
3.01400000 -7.37e-3 -4.251 -27.7323 85.749 -27.7323 85.749 -7.37e-3 -4.236
3.01450000 -7.68e-3 -4.301 -27.5526 85.700 -27.5526 85.700 -7.68e-3 -4.285
3.01500000 -8.01e-3 -4.352 -27.3690 85.648 -27.3690 85.648 -8.01e-3 -4.337
3.01550000 -8.37e-3 -4.407 -27.1815 85.594 -27.1815 85.594 -8.37e-3 -4.391
3.01600000 -8.74e-3 -4.463 -26.9898 85.538 -26.9898 85.538 -8.74e-3 -4.447
3.01650000 -9.15e-3 -4.522 -26.7938 85.479 -26.7938 85.479 -9.15e-3 -4.505
3.01700000 -9.58e-3 -4.584 -26.5932 85.418 -26.5932 85.418 -9.58e-3 -4.567
3.01750000 -0.01004 -4.649 -26.3879 85.353 -26.3879 85.353 -0.01004 -4.631
3.01800000 -0.01054 -4.717 -26.1776 85.286 -26.1776 85.286 -0.01054 -4.699
3.01850000 -0.01107 -4.788 -25.9620 85.214 -25.9620 85.214 -0.01107 -4.769
3.01900000 -0.01165 -4.863 -25.7410 85.140 -25.7410 85.140 -0.01165 -4.844
3.01950000 -0.01227 -4.942 -25.5141 85.061 -25.5141 85.061 -0.01227 -4.922
3.02000000 -0.01295 -5.025 -25.2812 84.978 -25.2812 84.978 -0.01295 -5.005
3.02050000 -0.01368 -5.113 -25.0418 84.891 -25.0418 84.891 -0.01368 -5.092
3.02100000 -0.01448 -5.206 -24.7957 84.798 -24.7957 84.798 -0.01448 -5.185
3.02150000 -0.01535 -5.304 -24.5423 84.700 -24.5423 84.700 -0.01535 -5.283
3.02200000 -0.01630 -5.409 -24.2813 84.596 -24.2813 84.596 -0.01630 -5.386
3.02250000 -0.01734 -5.520 -24.0122 84.485 -24.0122 84.485 -0.01734 -5.497
3.02300000 -0.01848 -5.638 -23.7345 84.368 -23.7345 84.368 -0.01848 -5.614
3.02350000 -0.01974 -5.764 -23.4477 84.242 -23.4477 84.242 -0.01974 -5.739
3.02400000 -0.02114 -5.899 -23.1510 84.108 -23.1510 84.108 -0.02114 -5.873
3.02450000 -0.02269 -6.044 -22.8439 83.963 -22.8439 83.963 -0.02269 -6.017
3.02500000 -0.02442 -6.199 -22.5255 83.809 -22.5255 83.809 -0.02442 -6.172
!< P1 F=3.025 Eeff=(5.94587267 -5.5112e-6) Z0=(75.9827098 3.52215e-5) R=8.86478e-4 C=0.05210221 
!< P2 F=3.025 Eeff=(5.94587267 -5.5112e-6) Z0=(75.9827098 3.52215e-5) R=8.86478e-4 C=0.05210221 
3.02550000 -0.02635 -6.367 -22.1951 83.642 -22.1951 83.642 -0.02635 -6.338
3.02600000 -0.02852 -6.548 -21.8516 83.461 -21.8516 83.461 -0.02852 -6.518
3.02650000 -0.03097 -6.744 -21.4940 83.266 -21.4940 83.266 -0.03097 -6.713
3.02700000 -0.03375 -6.957 -21.1211 83.053 -21.1211 83.053 -0.03375 -6.925
3.02750000 -0.03693 -7.190 -20.7316 82.821 -20.7316 82.821 -0.03693 -7.156
3.02800000 -0.04058 -7.446 -20.3238 82.567 -20.3238 82.567 -0.04058 -7.410
3.02850000 -0.04479 -7.727 -19.8961 82.287 -19.8961 82.287 -0.04479 -7.689
3.02900000 -0.04970 -8.038 -19.4465 81.977 -19.4465 81.977 -0.04970 -7.998
3.02950000 -0.05546 -8.384 -18.9725 81.632 -18.9725 81.632 -0.05546 -8.342
3.03000000 -0.06228 -8.771 -18.4715 81.246 -18.4715 81.246 -0.06228 -8.727
3.03050000 -0.07045 -9.207 -17.9401 80.812 -17.9401 80.812 -0.07045 -9.160
3.03100000 -0.08032 -9.702 -17.3747 80.319 -17.3747 80.319 -0.08032 -9.651
3.03150000 -0.09243 -10.27 -16.7706 79.755 -16.7706 79.755 -0.09243 -10.21
3.03200000 -0.10748 -10.92 -16.1222 79.103 -16.1222 79.103 -0.10748 -10.86
3.03250000 -0.12652 -11.69 -15.4228 78.342 -15.4228 78.342 -0.12652 -11.62
3.03300000 -0.15108 -12.59 -14.6641 77.442 -14.6641 77.442 -0.15108 -12.52
3.03350000 -0.18350 -13.67 -13.8353 76.361 -13.8353 76.361 -0.18350 -13.60
3.03400000 -0.22751 -15.00 -12.9231 75.040 -12.9231 75.040 -0.22750 -14.91
3.03450000 -0.28927 -16.65 -11.9101 73.391 -11.9101 73.391 -0.28927 -16.56
3.03500000 -0.37964 -18.78 -10.7734 71.279 -10.7734 71.279 -0.37964 -18.66
3.03550000 -0.51902 -21.58 -9.48329 68.485 -9.48329 68.485 -0.51902 -21.45
3.03600000 -0.74917 -25.44 -8.00111 64.639 -8.00111 64.639 -0.74917 -25.28
3.03650000 -1.16541 -31.03 -6.28211 59.074 -6.28211 59.074 -1.16541 -30.83
3.03700000 -2.01827 -39.62 -4.29705 50.529 -4.29705 50.529 -2.01828 -39.33
3.03750000 -4.10178 -53.57 -2.13717 36.674 -2.13717 36.674 -4.10179 -53.11
3.03800000 -10.9614 -76.14 -0.36070 14.538 -0.36070 14.538 -10.9616 -74.88
3.03850000 -13.8397 77.350 -0.18064 -13.63 -0.18064 -13.63 -13.8401 75.552
3.03900000 -4.74458 52.996 -1.77124 -37.29 -1.77124 -37.29 -4.74463 52.471
3.03950000 -2.25126 37.762 -3.92718 -52.41 -3.92718 -52.41 -2.25128 37.454
3.04000000 -1.26926 28.444 -5.95753 -61.68 -5.95753 -61.68 -1.26927 28.226
3.04050000 -0.80260 22.444 -7.72352 -67.65 -7.72352 -67.65 -0.80261 22.275
3.04100000 -0.54949 18.339 -9.24517 -71.74 -9.24517 -71.74 -0.54950 18.202
3.04150000 -0.39838 15.382 -10.5672 -74.69 -10.5672 -74.69 -0.39839 15.266
3.04200000 -0.30147 13.161 -11.7296 -76.90 -11.7296 -76.90 -0.30147 13.060
3.04250000 -0.23579 11.436 -12.7637 -78.62 -12.7637 -78.62 -0.23580 11.347
3.04300000 -0.18933 10.060 -13.6934 -79.99 -13.6934 -79.99 -0.18933 9.9805
3.04350000 -0.15528 8.9375 -14.5369 -81.11 -14.5369 -81.11 -0.15529 8.8660
3.04400000 -0.12962 8.0057 -15.3083 -82.04 -15.3083 -82.04 -0.12962 7.9403
3.04450000 -0.10980 7.2198 -16.0187 -82.82 -16.0187 -82.82 -0.10980 7.1597
3.04500000 -0.09419 6.5484 -16.6767 -83.49 -16.6767 -83.49 -0.09419 6.4927
3.04550000 -0.08167 5.9682 -17.2894 -84.07 -17.2894 -84.07 -0.08167 5.9164
3.04600000 -0.07148 5.4620 -17.8625 -84.57 -17.8625 -84.57 -0.07148 5.4135
3.04650000 -0.06308 5.0164 -18.4007 -85.01 -18.4007 -85.01 -0.06308 4.9709
3.04700000 -0.05608 4.6213 -18.9080 -85.41 -18.9080 -85.41 -0.05608 4.5784
3.04750000 -0.05017 4.2686 -19.3878 -85.76 -19.3878 -85.76 -0.05018 4.2280
3.04800000 -0.04515 3.9517 -19.8427 -86.07 -19.8427 -86.07 -0.04516 3.9132
3.04850000 -0.04085 3.6656 -20.2753 -86.36 -20.2753 -86.36 -0.04085 3.6290
3.04900000 -0.03713 3.4060 -20.6876 -86.62 -20.6876 -86.62 -0.03713 3.3710
3.04950000 -0.03390 3.1692 -21.0815 -86.85 -21.0815 -86.85 -0.03390 3.1358
3.05000000 -0.03107 2.9526 -21.4584 -87.07 -21.4584 -87.07 -0.03107 2.9206
3.05050000 -0.02857 2.7535 -21.8198 -87.27 -21.8198 -87.27 -0.02858 2.7228
3.05100000 -0.02637 2.5700 -22.1669 -87.45 -22.1669 -87.45 -0.02637 2.5405
3.05150000 -0.02441 2.4003 -22.5008 -87.62 -22.5008 -87.62 -0.02441 2.3719
3.05200000 -0.02266 2.2428 -22.8225 -87.78 -22.8225 -87.78 -0.02266 2.2155
3.05250000 -0.02109 2.0964 -23.1328 -87.92 -23.1328 -87.92 -0.02110 2.0700
3.05300000 -0.01968 1.9598 -23.4324 -88.06 -23.4324 -88.06 -0.01968 1.9343
3.05350000 -0.01841 1.8322 -23.7222 -88.19 -23.7222 -88.19 -0.01841 1.8075
3.05400000 -0.01725 1.7127 -24.0026 -88.31 -24.0026 -88.31 -0.01725 1.6887
3.05450000 -0.01620 1.6004 -24.2744 -88.42 -24.2744 -88.42 -0.01621 1.5772
3.05500000 -0.01525 1.4949 -24.5380 -88.52 -24.5380 -88.52 -0.01525 1.4724
3.05550000 -0.01437 1.3954 -24.7939 -88.62 -24.7939 -88.62 -0.01437 1.3736
3.05600000 -0.01357 1.3016 -25.0425 -88.72 -25.0425 -88.72 -0.01357 1.2803
3.05650000 -0.01283 1.2128 -25.2843 -88.80 -25.2843 -88.80 -0.01283 1.1921
3.05700000 -0.01216 1.1288 -25.5195 -88.89 -25.5195 -88.89 -0.01216 1.1086
3.05750000 -0.01153 1.0491 -25.7487 -88.97 -25.7487 -88.97 -0.01153 1.0295
3.05800000 -0.01095 0.9734 -25.9719 -89.04 -25.9719 -89.04 -0.01095 0.9543
3.05850000 -0.01041 0.9015 -26.1896 -89.11 -26.1896 -89.11 -0.01041 0.8828
3.05900000 -9.92e-3 0.8330 -26.4021 -89.18 -26.4021 -89.18 -9.92e-3 0.8147
3.05950000 -9.45e-3 0.7677 -26.6095 -89.25 -26.6095 -89.25 -9.45e-3 0.7499
3.06000000 -9.02e-3 0.7054 -26.8121 -89.31 -26.8121 -89.31 -9.02e-3 0.6880
3.06050000 -8.62e-3 0.6458 -27.0101 -89.37 -27.0101 -89.37 -8.62e-3 0.6288
3.06100000 -8.24e-3 0.5889 -27.2038 -89.42 -27.2038 -89.42 -8.24e-3 0.5723
3.06150000 -7.89e-3 0.5344 -27.3933 -89.48 -27.3933 -89.48 -7.89e-3 0.5181
3.06200000 -7.56e-3 0.4822 -27.5787 -89.53 -27.5787 -89.53 -7.56e-3 0.4663
3.06250000 -7.25e-3 0.4322 -27.7603 -89.58 -27.7603 -89.58 -7.25e-3 0.4165
3.06300000 -6.96e-3 0.3841 -27.9382 -89.63 -27.9382 -89.63 -6.96e-3 0.3688
3.06350000 -6.68e-3 0.3379 -28.1126 -89.67 -28.1126 -89.67 -6.68e-3 0.3229
3.06400000 -6.42e-3 0.2936 -28.2836 -89.72 -28.2836 -89.72 -6.42e-3 0.2788
3.06450000 -6.18e-3 0.2509 -28.4513 -89.76 -28.4513 -89.76 -6.18e-3 0.2364
3.06500000 -5.95e-3 0.2097 -28.6159 -89.80 -28.6159 -89.80 -5.95e-3 0.1956
3.06550000 -5.73e-3 0.1701 -28.7774 -89.84 -28.7774 -89.84 -5.73e-3 0.1562
3.06600000 -5.53e-3 0.1319 -28.9360 -89.88 -28.9360 -89.88 -5.53e-3 0.1182
3.06650000 -5.33e-3 0.0951 -29.0918 -89.92 -29.0918 -89.92 -5.33e-3 0.0816
3.06700000 -5.15e-3 0.0595 -29.2448 -89.95 -29.2448 -89.95 -5.15e-3 0.0462
3.06750000 -4.97e-3 0.0251 -29.3953 -89.99 -29.3953 -89.99 -4.97e-3 0.0121
3.06800000 -4.80e-3 0.0000 -29.5432 -90.02 -29.5432 -90.02 -4.80e-3 -0.021
3.06850000 -4.64e-3 -0.040 -29.6886 -90.05 -29.6886 -90.05 -4.65e-3 -0.053
3.06900000 -4.49e-3 -0.071 -29.8317 -90.08 -29.8317 -90.08 -4.49e-3 -0.084
3.06950000 -4.35e-3 -0.102 -29.9725 -90.11 -29.9725 -90.11 -4.35e-3 -0.114
3.07000000 -4.21e-3 -0.131 -30.1111 -90.14 -30.1111 -90.14 -4.21e-3 -0.143
3.07050000 -4.08e-3 -0.159 -30.2475 -90.17 -30.2475 -90.17 -4.08e-3 -0.171
3.07100000 -3.96e-3 -0.186 -30.3818 -90.20 -30.3818 -90.20 -3.96e-3 -0.198
3.07150000 -3.84e-3 -0.213 -30.5141 -90.22 -30.5141 -90.22 -3.84e-3 -0.225
3.07200000 -3.73e-3 -0.239 -30.6444 -90.25 -30.6444 -90.25 -3.73e-3 -0.250
3.07250000 -3.62e-3 -0.264 -30.7728 -90.27 -30.7728 -90.27 -3.62e-3 -0.275
3.07300000 -3.51e-3 -0.288 -30.8994 -90.30 -30.8994 -90.30 -3.51e-3 -0.299
3.07350000 -3.41e-3 -0.312 -31.0242 -90.32 -31.0242 -90.32 -3.41e-3 -0.323
3.07400000 -3.32e-3 -0.335 -31.1472 -90.34 -31.1472 -90.34 -3.32e-3 -0.346
3.07450000 -3.23e-3 -0.358 -31.2686 -90.37 -31.2686 -90.37 -3.23e-3 -0.368
3.07500000 -3.14e-3 -0.379 -31.3882 -90.39 -31.3882 -90.39 -3.14e-3 -0.390
3.07550000 -3.05e-3 -0.401 -31.5063 -90.41 -31.5063 -90.41 -3.05e-3 -0.411
3.07600000 -2.97e-3 -0.421 -31.6228 -90.43 -31.6228 -90.43 -2.97e-3 -0.431
3.07650000 -2.90e-3 -0.441 -31.7378 -90.45 -31.7378 -90.45 -2.90e-3 -0.452
3.07700000 -2.82e-3 -0.461 -31.8513 -90.47 -31.8513 -90.47 -2.82e-3 -0.471
3.07750000 -2.75e-3 -0.480 -31.9633 -90.49 -31.9633 -90.49 -2.75e-3 -0.490
3.07800000 -2.68e-3 -0.499 -32.0740 -90.51 -32.0740 -90.51 -2.68e-3 -0.509
3.07850000 -2.61e-3 -0.517 -32.1832 -90.53 -32.1832 -90.53 -2.61e-3 -0.527
3.07900000 -2.55e-3 -0.535 -32.2912 -90.54 -32.2912 -90.54 -2.55e-3 -0.544
3.07950000 -2.49e-3 -0.552 -32.3978 -90.56 -32.3978 -90.56 -2.49e-3 -0.562
3.08000000 -2.43e-3 -0.569 -32.5031 -90.58 -32.5031 -90.58 -2.43e-3 -0.578
3.08050000 -2.37e-3 -0.586 -32.6072 -90.59 -32.6072 -90.59 -2.37e-3 -0.595
3.08100000 -2.31e-3 -0.602 -32.7101 -90.61 -32.7101 -90.61 -2.31e-3 -0.611
3.08150000 -2.26e-3 -0.618 -32.8118 -90.63 -32.8118 -90.63 -2.26e-3 -0.627
3.08200000 -2.21e-3 -0.633 -32.9123 -90.64 -32.9123 -90.64 -2.21e-3 -0.642
3.08250000 -2.16e-3 -0.648 -33.0117 -90.66 -33.0117 -90.66 -2.16e-3 -0.657
3.08300000 -2.11e-3 -0.663 -33.1100 -90.67 -33.1100 -90.67 -2.11e-3 -0.672
3.08350000 -2.06e-3 -0.678 -33.2072 -90.69 -33.2072 -90.69 -2.06e-3 -0.686
3.08400000 -2.02e-3 -0.692 -33.3033 -90.70 -33.3033 -90.70 -2.02e-3 -0.700
3.08450000 -1.98e-3 -0.706 -33.3984 -90.71 -33.3984 -90.71 -1.98e-3 -0.714
3.08500000 -1.93e-3 -0.719 -33.4925 -90.73 -33.4925 -90.73 -1.93e-3 -0.727
3.08550000 -1.89e-3 -0.732 -33.5856 -90.74 -33.5856 -90.74 -1.89e-3 -0.741
3.08600000 -1.85e-3 -0.745 -33.6777 -90.75 -33.6777 -90.75 -1.85e-3 -0.754
3.08650000 -1.81e-3 -0.758 -33.7689 -90.77 -33.7689 -90.77 -1.81e-3 -0.766
3.08700000 -1.78e-3 -0.771 -33.8591 -90.78 -33.8591 -90.78 -1.78e-3 -0.779
3.08750000 -1.74e-3 -0.783 -33.9484 -90.79 -33.9484 -90.79 -1.74e-3 -0.791
3.08800000 -1.71e-3 -0.795 -34.0368 -90.80 -34.0368 -90.80 -1.71e-3 -0.803
3.08850000 -1.67e-3 -0.807 -34.1244 -90.81 -34.1244 -90.81 -1.67e-3 -0.814
3.08900000 -1.64e-3 -0.818 -34.2111 -90.83 -34.2111 -90.83 -1.64e-3 -0.826
3.08950000 -1.61e-3 -0.830 -34.2969 -90.84 -34.2969 -90.84 -1.61e-3 -0.837
3.09000000 -1.57e-3 -0.841 -34.3819 -90.85 -34.3819 -90.85 -1.57e-3 -0.848
3.09050000 -1.54e-3 -0.852 -34.4661 -90.86 -34.4661 -90.86 -1.54e-3 -0.859
3.09100000 -1.52e-3 -0.862 -34.5495 -90.87 -34.5495 -90.87 -1.52e-3 -0.870
3.09150000 -1.49e-3 -0.873 -34.6322 -90.88 -34.6322 -90.88 -1.49e-3 -0.880
3.09200000 -1.46e-3 -0.883 -34.7140 -90.89 -34.7140 -90.89 -1.46e-3 -0.890
3.09250000 -1.43e-3 -0.893 -34.7951 -90.90 -34.7951 -90.90 -1.43e-3 -0.900
3.09300000 -1.41e-3 -0.903 -34.8755 -90.91 -34.8755 -90.91 -1.41e-3 -0.910
3.09350000 -1.38e-3 -0.913 -34.9552 -90.92 -34.9552 -90.92 -1.38e-3 -0.920
3.09400000 -1.36e-3 -0.923 -35.0341 -90.93 -35.0341 -90.93 -1.36e-3 -0.930
3.09450000 -1.33e-3 -0.932 -35.1123 -90.94 -35.1123 -90.94 -1.33e-3 -0.939
3.09500000 -1.31e-3 -0.941 -35.1899 -90.95 -35.1899 -90.95 -1.31e-3 -0.948
3.09550000 -1.28e-3 -0.951 -35.2668 -90.96 -35.2668 -90.96 -1.28e-3 -0.957
3.09600000 -1.26e-3 -0.959 -35.3430 -90.97 -35.3430 -90.97 -1.26e-3 -0.966
3.09650000 -1.24e-3 -0.968 -35.4185 -90.97 -35.4185 -90.97 -1.24e-3 -0.975
3.09700000 -1.22e-3 -0.977 -35.4935 -90.98 -35.4935 -90.98 -1.22e-3 -0.984
3.09750000 -1.20e-3 -0.986 -35.5678 -90.99 -35.5678 -90.99 -1.20e-3 -0.992
3.09800000 -1.18e-3 -0.994 -35.6414 -91.00 -35.6414 -91.00 -1.18e-3 -1.000
3.09850000 -1.16e-3 -1.002 -35.7145 -91.01 -35.7145 -91.01 -1.16e-3 -1.009
3.09900000 -1.14e-3 -1.010 -35.7870 -91.02 -35.7870 -91.02 -1.14e-3 -1.017
3.09950000 -1.12e-3 -1.018 -35.8588 -91.02 -35.8588 -91.02 -1.12e-3 -1.025
3.10000000 -1.10e-3 -1.026 -35.9301 -91.03 -35.9301 -91.03 -1.10e-3 -1.033
3.12500000 -5.50e-4 -1.309 -38.9167 -91.32 -38.9167 -91.32 -5.50e-4 -1.314
3.15000000 -3.34e-4 -1.473 -41.1510 -91.47 -41.1510 -91.47 -3.34e-4 -1.476
!< P1 F=3.15 Eeff=(5.94748254 -5.5175e-6) Z0=(75.9745147 3.52408e-5) R=8.46559e-4 C=0.0520785 
!< P2 F=3.15 Eeff=(5.94748254 -5.5175e-6) Z0=(75.9745147 3.52408e-5) R=8.46559e-4 C=0.0520785 
3.17500000 -2.29e-4 -1.582 -42.9403 -91.58 -42.9403 -91.58 -2.28e-4 -1.585
3.20000000 -1.69e-4 -1.663 -44.4348 -91.65 -44.4348 -91.65 -1.68e-4 -1.666
3.22500000 -1.32e-4 -1.726 -45.7198 -91.71 -45.7198 -91.71 -1.31e-4 -1.729
3.25000000 -1.08e-4 -1.778 -46.8483 -91.75 -46.8483 -91.75 -1.06e-4 -1.781
3.27500000 -9.10e-5 -1.823 -47.8554 -91.79 -47.8554 -91.79 -8.88e-5 -1.825
3.30000000 -7.87e-5 -1.862 -48.7656 -91.83 -48.7656 -91.83 -7.63e-5 -1.864
3.32500000 -6.96e-5 -1.897 -49.5969 -91.86 -49.5969 -91.86 -6.69e-5 -1.899
3.35000000 -6.25e-5 -1.929 -50.3623 -91.88 -50.3623 -91.88 -5.96e-5 -1.930
3.37500000 -5.69e-5 -1.958 -51.0723 -91.91 -51.0723 -91.91 -5.38e-5 -1.960
3.40000000 -5.23e-5 -1.986 -51.7348 -91.93 -51.7348 -91.93 -4.91e-5 -1.987
3.42500000 -4.85e-5 -2.012 -52.3562 -91.95 -52.3562 -91.95 -4.52e-5 -2.014
3.45000000 -4.53e-5 -2.037 -52.9417 -91.97 -52.9417 -91.97 -4.19e-5 -2.038
3.47500000 -4.25e-5 -2.061 -53.4956 -91.99 -53.4956 -91.99 -3.91e-5 -2.062
3.50000000 -4.00e-5 -2.084 -54.0214 -92.01 -54.0214 -92.01 -3.66e-5 -2.085
3.52500000 -3.78e-5 -2.107 -54.5221 -92.03 -54.5221 -92.03 -3.44e-5 -2.108
3.55000000 -3.58e-5 -2.128 -55.0003 -92.05 -55.0003 -92.05 -3.24e-5 -2.129
3.57500000 -3.39e-5 -2.149 -55.4581 -92.07 -55.4581 -92.07 -3.06e-5 -2.150
3.60000000 -3.22e-5 -2.170 -55.8974 -92.09 -55.8974 -92.09 -2.89e-5 -2.171
3.62500000 -3.05e-5 -2.190 -56.3198 -92.11 -56.3198 -92.11 -2.73e-5 -2.191
3.65000000 -2.89e-5 -2.210 -56.7268 -92.13 -56.7268 -92.13 -2.59e-5 -2.211
3.67500000 -2.74e-5 -2.230 -57.1195 -92.15 -57.1195 -92.15 -2.45e-5 -2.231
3.70000000 -2.60e-5 -2.249 -57.4991 -92.16 -57.4991 -92.16 -2.31e-5 -2.250
3.72500000 -2.45e-5 -2.269 -57.8665 -92.18 -57.8665 -92.18 -2.19e-5 -2.269
3.75000000 -2.32e-5 -2.287 -58.2226 -92.20 -58.2226 -92.20 -2.06e-5 -2.288
3.77500000 -2.18e-5 -2.306 -58.5682 -92.22 -58.5682 -92.22 -1.94e-5 -2.307
3.80000000 -2.05e-5 -2.325 -58.9039 -92.24 -58.9039 -92.24 -1.83e-5 -2.325
3.82500000 -1.92e-5 -2.343 -59.2305 -92.26 -59.2305 -92.26 -1.72e-5 -2.344
3.85000000 -1.79e-5 -2.361 -59.5483 -92.28 -59.5483 -92.28 -1.61e-5 -2.362
3.87500000 -1.66e-5 -2.379 -59.8581 -92.30 -59.8581 -92.30 -1.50e-5 -2.380
3.90000000 -1.54e-5 -2.397 -60.1601 -92.32 -60.1601 -92.32 -1.40e-5 -2.398
3.92500000 -1.42e-5 -2.415 -60.4549 -92.34 -60.4549 -92.34 -1.29e-5 -2.416
3.95000000 -1.30e-5 -2.433 -60.7427 -92.36 -60.7427 -92.36 -1.19e-5 -2.434
3.97500000 -1.19e-5 -2.451 -61.0240 -92.39 -61.0240 -92.39 -1.10e-5 -2.452
4.00000000 -1.08e-5 -2.468 -61.2991 -92.41 -61.2991 -92.41 -1.00e-5 -2.469
4.02500000 -9.69e-6 -2.486 -61.5683 -92.43 -61.5683 -92.43 -9.07e-6 -2.487
4.05000000 -8.63e-6 -2.504 -61.8318 -92.45 -61.8318 -92.45 -8.15e-6 -2.504
4.07500000 -7.61e-6 -2.521 -62.0898 -92.48 -62.0898 -92.48 -7.25e-6 -2.522
4.10000000 -6.62e-6 -2.538 -62.3427 -92.50 -62.3427 -92.50 -6.37e-6 -2.539
4.12500000 -5.67e-6 -2.556 -62.5906 -92.53 -62.5906 -92.53 -5.51e-6 -2.556
4.15000000 -4.76e-6 -2.573 -62.8336 -92.55 -62.8336 -92.55 -4.68e-6 -2.573
4.17500000 -3.89e-6 -2.590 -63.0721 -92.57 -63.0721 -92.57 -3.86e-6 -2.591
4.20000000 -3.07e-6 -2.607 -63.3061 -92.60 -63.3061 -92.60 -3.07e-6 -2.608
4.22500000 -2.29e-6 -2.624 -63.5357 -92.62 -63.5357 -92.62 -2.29e-6 -2.625
!< P1 F=4.225 Eeff=(5.96397327 -5.5389e-6) Z0=(75.8938997 3.52408e-5) R=6.35731e-4 C=0.05183608 
!< P2 F=4.225 Eeff=(5.96397327 -5.5389e-6) Z0=(75.8938997 3.52408e-5) R=6.35731e-4 C=0.05183608 
4.25000000 -1.83e-6 -2.641 -63.7616 -92.65 -63.7616 -92.65 -1.74e-6 -2.642
4.27500000 -1.38e-6 -2.658 -63.9834 -92.67 -63.9834 -92.67 -1.19e-6 -2.659
4.30000000 -9.43e-7 -2.675 -64.2013 -92.69 -64.2013 -92.69 -6.52e-7 -2.676
4.32500000 -5.20e-7 -2.692 -64.4155 -92.71 -64.4155 -92.71 -1.33e-7 -2.693
4.35000000 -1.12e-7 -2.709 -64.6259 -92.73 -64.6259 -92.73 3.704e-7 -2.710
4.37500000 2.794e-7 -2.726 -64.8328 -92.75 -64.8328 -92.75 8.588e-7 -2.727
4.40000000 6.548e-7 -2.743 -65.0363 -92.77 -65.0363 -92.77 1.332e-6 -2.744
4.42500000 1.014e-6 -2.760 -65.2363 -92.79 -65.2363 -92.79 1.789e-6 -2.761
4.45000000 1.355e-6 -2.777 -65.4331 -92.81 -65.4331 -92.81 2.230e-6 -2.778
4.47500000 1.680e-6 -2.794 -65.6266 -92.84 -65.6266 -92.84 2.655e-6 -2.794
4.50000000 1.987e-6 -2.811 -65.8170 -92.86 -65.8170 -92.86 3.063e-6 -2.811
4.52500000 2.276e-6 -2.828 -66.0043 -92.88 -66.0043 -92.88 3.455e-6 -2.828
4.55000000 2.547e-6 -2.844 -66.1887 -92.90 -66.1887 -92.90 3.831e-6 -2.845
4.57500000 2.800e-6 -2.861 -66.3701 -92.92 -66.3701 -92.92 4.191e-6 -2.862
4.60000000 3.034e-6 -2.878 -66.5486 -92.94 -66.5486 -92.94 4.533e-6 -2.878
4.62500000 3.250e-6 -2.895 -66.7244 -92.96 -66.7244 -92.96 4.860e-6 -2.895
4.65000000 3.447e-6 -2.912 -66.8974 -92.99 -66.8974 -92.99 5.170e-6 -2.912
4.67500000 3.625e-6 -2.928 -67.0678 -93.01 -67.0678 -93.01 5.463e-6 -2.929
4.70000000 3.785e-6 -2.945 -67.2356 -93.03 -67.2356 -93.03 5.740e-6 -2.946
4.72500000 3.926e-6 -2.962 -67.4008 -93.05 -67.4008 -93.05 6.000e-6 -2.962
4.75000000 4.048e-6 -2.979 -67.5636 -93.07 -67.5636 -93.07 6.245e-6 -2.979
4.77500000 4.152e-6 -2.995 -67.7240 -93.09 -67.7240 -93.09 6.473e-6 -2.996
4.80000000 4.237e-6 -3.012 -67.8820 -93.11 -67.8820 -93.11 6.685e-6 -3.013
4.82500000 4.304e-6 -3.029 -68.0378 -93.13 -68.0378 -93.13 6.882e-6 -3.029
4.85000000 4.353e-6 -3.045 -68.1913 -93.15 -68.1913 -93.15 7.063e-6 -3.046